# LAMMPS data file

1622 atoms
1622 bonds
1622 angles

1 atom types
1 bond types
1 angle types

-0.98 25.92 xlo xhi
-0.98 25.92 ylo yhi
-0.98 25.92 zlo zhi

Masses

1 1

Atoms

1 1 1 2.4	0.0	0.0 
2 1 1 2.4	-1.27832e-07	0.96 
3 1 1 2.4	-2.55663e-07	1.92 
4 1 1 2.4	-3.83495e-07	2.88 
5 1 1 2.4	-5.11327e-07	3.84 
6 1 1 2.4	-6.39159e-07	4.8 
7 1 1 2.4	-7.6699e-07	5.76 
8 1 1 2.4	-8.94822e-07	6.72 
9 1 1 2.4	-1.02265e-06	7.68 
10 1 1 2.4	-1.15049e-06	8.64
11 1 1 2.4	-1.15049e-06	9.6
12 1 1 2.4	-1.15049e-06	10.56
13 1 1 2.4	-1.15049e-06	11.52
14 1 1 2.4	-1.15049e-06	12.48
15 1 1 2.4	-1.15049e-06	13.44
16 1 1 2.4	-1.15049e-06	14.4
17 1 1 2.4	-1.15049e-06	15.36
18 1 1 2.4	-1.15049e-06	16.32
19 1 1 2.4	-1.15049e-06	17.28
20 1 1 2.4	-1.15049e-06	18.24
21 1 1 2.4	-1.15049e-06	19.2
22 1 1 2.4	-1.15049e-06	20.16
23 1 1 2.4	-1.15049e-06	21.12
24 1 1 2.4	-1.15049e-06	22.08
25 1 1 2.4	-1.15049e-06	23.04
26 1 1 2.4	-1.15049e-06	24.0
27 1 1 2.4	-1.15049e-06	24.96
28 1 1 2.4	-1.15049e-06	25.92
29 1 1 2.4	-1.15049e-06	26.88
30 1 1 2.4	-1.15049e-06	27.84
31 1 1 7.2	4.8	0.0
32 1 1 7.2	4.8	0.96
33 1 1 7.2	4.8	1.92
34 1 1 7.2	4.8	2.88
35 1 1 7.2	4.8	3.84
36 1 1 7.2	4.8	4.8
37 1 1 7.2	4.8	5.76
38 1 1 7.2	4.8	6.72
39 1 1 7.2	4.8	7.68
40 1 1 7.2	4.8	8.64
41 1 1 7.2	4.8	9.6
42 1 1 7.2	4.8	10.56
43 1 1 7.2	4.8	11.52
44 1 1 7.2	4.8	12.48
45 1 1 7.2	4.8	13.44
46 1 1 7.2	4.8	14.4
47 1 1 7.2	4.8	15.36
48 1 1 7.2	4.8	16.32
49 1 1 7.2	4.8	17.28
50 1 1 7.2	4.8	18.24
51 1 1 7.2	4.8	19.2
52 1 1 7.2	4.8	20.16
53 1 1 7.2	4.8	21.12
54 1 1 7.2	4.8	22.08
55 1 1 7.2	4.8	23.04
56 1 1 7.2	4.8	24.0
57 1 1 7.2	4.8	24.96
58 1 1 7.2	4.8	25.92
59 1 1 7.2	4.8	26.88
60 1 1 7.2	4.8	27.84
61 1 1 0.0	2.4	0.0
62 1 1 0.96	2.4	-2.55663e-07
63 1 1 1.92	2.4	-5.11327e-07
64 1 1 2.88	2.4	-7.6699e-07
65 1 1 3.84	2.4	-1.02265e-06
66 1 1 4.8	2.4	-1.27832e-06
67 1 1 5.76	2.4	-1.53398e-06
68 1 1 6.72	2.4	-1.78964e-06
69 1 1 7.68	2.4	-2.04531e-06
70 1 1 8.64	2.4	-2.30097e-06
71 1 1 9.6	2.4	-2.30097e-06
72 1 1 10.56	2.4	-2.30097e-06
73 1 1 11.52	2.4	-2.30097e-06
74 1 1 12.48	2.4	-2.30097e-06
75 1 1 13.44	2.4	-2.30097e-06
76 1 1 14.4	2.4	-2.30097e-06
77 1 1 15.36	2.4	-2.30097e-06
78 1 1 16.32	2.4	-2.30097e-06
79 1 1 17.28	2.4	-2.30097e-06
80 1 1 18.24	2.4	-2.30097e-06
81 1 1 19.2	2.4	-2.30097e-06
82 1 1 20.16	2.4	-2.30097e-06
83 1 1 21.12	2.4	-2.30097e-06
84 1 1 22.08	2.4	-2.30097e-06
85 1 1 23.04	2.4	-2.30097e-06
86 1 1 24.0	2.4	-2.30097e-06
87 1 1 24.96	2.4	-2.30097e-06
88 1 1 25.92	2.4	-2.30097e-06
89 1 1 26.88	2.4	-2.30097e-06
90 1 1 27.84	2.4	-2.30097e-06
91 1 1 0.0	7.2	4.8
92 1 1 0.96	7.2	4.8
93 1 1 1.92	7.2	4.8
94 1 1 2.88	7.2	4.8
95 1 1 3.84	7.2	4.8
96 1 1 4.8	7.2	4.8
97 1 1 5.76	7.2	4.8
98 1 1 6.72	7.2	4.8
99 1 1 7.68	7.2	4.8
100 1 1 8.64	7.2	4.8
101 1 1 9.6	7.2	4.8
102 1 1 10.56	7.2	4.8
103 1 1 11.52	7.2	4.8
104 1 1 12.48	7.2	4.8
105 1 1 13.44	7.2	4.8
106 1 1 14.4	7.2	4.8
107 1 1 15.36	7.2	4.8
108 1 1 16.32	7.2	4.8
109 1 1 17.28	7.2	4.8
110 1 1 18.24	7.2	4.8
111 1 1 19.2	7.2	4.8
112 1 1 20.16	7.2	4.8
113 1 1 21.12	7.2	4.8
114 1 1 22.08	7.2	4.8
115 1 1 23.04	7.2	4.8
116 1 1 24.0	7.2	4.8
117 1 1 24.96	7.2	4.8
118 1 1 25.92	7.2	4.8
119 1 1 26.88	7.2	4.8
120 1 1 27.84	7.2	4.8
121 1 1 0.0	0.0	2.4
122 1 1 0.0	0.96	2.4
123 1 1 0.0	1.92	2.4
124 1 1 0.0	2.88	2.4
125 1 1 0.0	3.84	2.4
126 1 1 0.0	4.8	2.4
127 1 1 0.0	5.76	2.4
128 1 1 0.0	6.72	2.4
129 1 1 0.0	7.68	2.4
130 1 1 0.0	8.64	2.4
131 1 1 0.0	9.6	2.4
132 1 1 0.0	10.56	2.4
133 1 1 0.0	11.52	2.4
134 1 1 0.0	12.48	2.4
135 1 1 0.0	13.44	2.4
136 1 1 0.0	14.4	2.4
137 1 1 0.0	15.36	2.4
138 1 1 0.0	16.32	2.4
139 1 1 0.0	17.28	2.4
140 1 1 0.0	18.24	2.4
141 1 1 0.0	19.2	2.4
142 1 1 0.0	20.16	2.4
143 1 1 0.0	21.12	2.4
144 1 1 0.0	22.08	2.4
145 1 1 0.0	23.04	2.4
146 1 1 0.0	24.0	2.4
147 1 1 0.0	24.96	2.4
148 1 1 0.0	25.92	2.4
149 1 1 0.0	26.88	2.4
150 1 1 0.0	27.84	2.4
151 1 1 4.8	0.0	7.2
152 1 1 4.8	0.96	7.2
153 1 1 4.8	1.92	7.2
154 1 1 4.8	2.88	7.2
155 1 1 4.8	3.84	7.2
156 1 1 4.8	4.8	7.2
157 1 1 4.8	5.76	7.2
158 1 1 4.8	6.72	7.2
159 1 1 4.8	7.68	7.2
160 1 1 4.8	8.64	7.2
161 1 1 4.8	9.6	7.2
162 1 1 4.8	10.56	7.2
163 1 1 4.8	11.52	7.2
164 1 1 4.8	12.48	7.2
165 1 1 4.8	13.44	7.2
166 1 1 4.8	14.4	7.2
167 1 1 4.8	15.36	7.2
168 1 1 4.8	16.32	7.2
169 1 1 4.8	17.28	7.2
170 1 1 4.8	18.24	7.2
171 1 1 4.8	19.2	7.2
172 1 1 4.8	20.16	7.2
173 1 1 4.8	21.12	7.2
174 1 1 4.8	22.08	7.2
175 1 1 4.8	23.04	7.2
176 1 1 4.8	24.0	7.2
177 1 1 4.8	24.96	7.2
178 1 1 4.8	25.92	7.2
179 1 1 4.8	26.88	7.2
180 1 1 4.8	27.84	7.2
181 1 1 12.0	0.0	0.0
182 1 1 12.0	-1.27832e-07	0.96
183 1 1 12.0	-2.55663e-07	1.92
184 1 1 12.0	-3.83495e-07	2.88
185 1 1 12.0	-5.11327e-07	3.84
186 1 1 12.0	-6.39159e-07	4.8
187 1 1 12.0	-7.6699e-07	5.76
188 1 1 12.0	-8.94822e-07	6.72
189 1 1 12.0	-1.02265e-06	7.68
190 1 1 12.0	-1.15049e-06	8.64
191 1 1 12.0	-1.15049e-06	9.6
192 1 1 12.0	-1.15049e-06	10.56
193 1 1 12.0	-1.15049e-06	11.52
194 1 1 12.0	-1.15049e-06	12.48
195 1 1 12.0	-1.15049e-06	13.44
196 1 1 12.0	-1.15049e-06	14.4
197 1 1 12.0	-1.15049e-06	15.36
198 1 1 12.0	-1.15049e-06	16.32
199 1 1 12.0	-1.15049e-06	17.28
200 1 1 12.0	-1.15049e-06	18.24
201 1 1 12.0	-1.15049e-06	19.2
202 1 1 12.0	-1.15049e-06	20.16
203 1 1 12.0	-1.15049e-06	21.12
204 1 1 12.0	-1.15049e-06	22.08
205 1 1 12.0	-1.15049e-06	23.04
206 1 1 12.0	-1.15049e-06	24.0
207 1 1 12.0	-1.15049e-06	24.96
208 1 1 12.0	-1.15049e-06	25.92
209 1 1 12.0	-1.15049e-06	26.88
210 1 1 12.0	-1.15049e-06	27.84
211 1 1 16.8	4.8	0.0
212 1 1 16.8	4.8	0.96
213 1 1 16.8	4.8	1.92
214 1 1 16.8	4.8	2.88
215 1 1 16.8	4.8	3.84
216 1 1 16.8	4.8	4.8
217 1 1 16.8	4.8	5.76
218 1 1 16.8	4.8	6.72
219 1 1 16.8	4.8	7.68
220 1 1 16.8	4.8	8.64
221 1 1 16.8	4.8	9.6
222 1 1 16.8	4.8	10.56
223 1 1 16.8	4.8	11.52
224 1 1 16.8	4.8	12.48
225 1 1 16.8	4.8	13.44
226 1 1 16.8	4.8	14.4
227 1 1 16.8	4.8	15.36
228 1 1 16.8	4.8	16.32
229 1 1 16.8	4.8	17.28
230 1 1 16.8	4.8	18.24
231 1 1 16.8	4.8	19.2
232 1 1 16.8	4.8	20.16
233 1 1 16.8	4.8	21.12
234 1 1 16.8	4.8	22.08
235 1 1 16.8	4.8	23.04
236 1 1 16.8	4.8	24.0
237 1 1 16.8	4.8	24.96
238 1 1 16.8	4.8	25.92
239 1 1 16.8	4.8	26.88
240 1 1 16.8	4.8	27.84
241 1 1 9.6	0.0	2.4
242 1 1 9.6	0.96	2.4
243 1 1 9.6	1.92	2.4
244 1 1 9.6	2.88	2.4
245 1 1 9.6	3.84	2.4
246 1 1 9.6	4.8	2.4
247 1 1 9.6	5.76	2.4
248 1 1 9.6	6.72	2.4
249 1 1 9.6	7.68	2.4
250 1 1 9.6	8.64	2.4
251 1 1 9.6	9.6	2.4
252 1 1 9.6	10.56	2.4
253 1 1 9.6	11.52	2.4
254 1 1 9.6	12.48	2.4
255 1 1 9.6	13.44	2.4
256 1 1 9.6	14.4	2.4
257 1 1 9.6	15.36	2.4
258 1 1 9.6	16.32	2.4
259 1 1 9.6	17.28	2.4
260 1 1 9.6	18.24	2.4
261 1 1 9.6	19.2	2.4
262 1 1 9.6	20.16	2.4
263 1 1 9.6	21.12	2.4
264 1 1 9.6	22.08	2.4
265 1 1 9.6	23.04	2.4
266 1 1 9.6	24.0	2.4
267 1 1 9.6	24.96	2.4
268 1 1 9.6	25.92	2.4
269 1 1 9.6	26.88	2.4
270 1 1 9.6	27.84	2.4
271 1 1 14.4	0.0	7.2
272 1 1 14.4	0.96	7.2
273 1 1 14.4	1.92	7.2
274 1 1 14.4	2.88	7.2
275 1 1 14.4	3.84	7.2
276 1 1 14.4	4.8	7.2
277 1 1 14.4	5.76	7.2
278 1 1 14.4	6.72	7.2
279 1 1 14.4	7.68	7.2
280 1 1 14.4	8.64	7.2
281 1 1 14.4	9.6	7.2
282 1 1 14.4	10.56	7.2
283 1 1 14.4	11.52	7.2
284 1 1 14.4	12.48	7.2
285 1 1 14.4	13.44	7.2
286 1 1 14.4	14.4	7.2
287 1 1 14.4	15.36	7.2
288 1 1 14.4	16.32	7.2
289 1 1 14.4	17.28	7.2
290 1 1 14.4	18.24	7.2
291 1 1 14.4	19.2	7.2
292 1 1 14.4	20.16	7.2
293 1 1 14.4	21.12	7.2
294 1 1 14.4	22.08	7.2
295 1 1 14.4	23.04	7.2
296 1 1 14.4	24.0	7.2
297 1 1 14.4	24.96	7.2
298 1 1 14.4	25.92	7.2
299 1 1 14.4	26.88	7.2
300 1 1 14.4	27.84	7.2
301 1 1 21.6	0.0	0.0
302 1 1 21.6	-1.27832e-07	0.96
303 1 1 21.6	-2.55663e-07	1.92
304 1 1 21.6	-3.83495e-07	2.88
305 1 1 21.6	-5.11327e-07	3.84
306 1 1 21.6	-6.39159e-07	4.8
307 1 1 21.6	-7.6699e-07	5.76
308 1 1 21.6	-8.94822e-07	6.72
309 1 1 21.6	-1.02265e-06	7.68
310 1 1 21.6	-1.15049e-06	8.64
311 1 1 21.6	-1.15049e-06	9.6
312 1 1 21.6	-1.15049e-06	10.56
313 1 1 21.6	-1.15049e-06	11.52
314 1 1 21.6	-1.15049e-06	12.48
315 1 1 21.6	-1.15049e-06	13.44
316 1 1 21.6	-1.15049e-06	14.4
317 1 1 21.6	-1.15049e-06	15.36
318 1 1 21.6	-1.15049e-06	16.32
319 1 1 21.6	-1.15049e-06	17.28
320 1 1 21.6	-1.15049e-06	18.24
321 1 1 21.6	-1.15049e-06	19.2
322 1 1 21.6	-1.15049e-06	20.16
323 1 1 21.6	-1.15049e-06	21.12
324 1 1 21.6	-1.15049e-06	22.08
325 1 1 21.6	-1.15049e-06	23.04
326 1 1 21.6	-1.15049e-06	24.0
327 1 1 21.6	-1.15049e-06	24.96
328 1 1 21.6	-1.15049e-06	25.92
329 1 1 21.6	-1.15049e-06	26.88
330 1 1 21.6	-1.15049e-06	27.84
331 1 1 26.4	4.8	0.0
332 1 1 26.4	4.8	0.96
333 1 1 26.4	4.8	1.92
334 1 1 26.4	4.8	2.88
335 1 1 26.4	4.8	3.84
336 1 1 26.4	4.8	4.8
337 1 1 26.4	4.8	5.76
338 1 1 26.4	4.8	6.72
339 1 1 26.4	4.8	7.68
340 1 1 26.4	4.8	8.64
341 1 1 26.4	4.8	9.6
342 1 1 26.4	4.8	10.56
343 1 1 26.4	4.8	11.52
344 1 1 26.4	4.8	12.48
345 1 1 26.4	4.8	13.44
346 1 1 26.4	4.8	14.4
347 1 1 26.4	4.8	15.36
348 1 1 26.4	4.8	16.32
349 1 1 26.4	4.8	17.28
350 1 1 26.4	4.8	18.24
351 1 1 26.4	4.8	19.2
352 1 1 26.4	4.8	20.16
353 1 1 26.4	4.8	21.12
354 1 1 26.4	4.8	22.08
355 1 1 26.4	4.8	23.04
356 1 1 26.4	4.8	24.0
357 1 1 26.4	4.8	24.96
358 1 1 26.4	4.8	25.92
359 1 1 26.4	4.8	26.88
360 1 1 26.4	4.8	27.84
361 1 1 19.2	0.0	2.4
362 1 1 19.2	0.96	2.4
363 1 1 19.2	1.92	2.4
364 1 1 19.2	2.88	2.4
365 1 1 19.2	3.84	2.4
366 1 1 19.2	4.8	2.4
367 1 1 19.2	5.76	2.4
368 1 1 19.2	6.72	2.4
369 1 1 19.2	7.68	2.4
370 1 1 19.2	8.64	2.4
371 1 1 19.2	9.6	2.4
372 1 1 19.2	10.56	2.4
373 1 1 19.2	11.52	2.4
374 1 1 19.2	12.48	2.4
375 1 1 19.2	13.44	2.4
376 1 1 19.2	14.4	2.4
377 1 1 19.2	15.36	2.4
378 1 1 19.2	16.32	2.4
379 1 1 19.2	17.28	2.4
380 1 1 19.2	18.24	2.4
381 1 1 19.2	19.2	2.4
382 1 1 19.2	20.16	2.4
383 1 1 19.2	21.12	2.4
384 1 1 19.2	22.08	2.4
385 1 1 19.2	23.04	2.4
386 1 1 19.2	24.0	2.4
387 1 1 19.2	24.96	2.4
388 1 1 19.2	25.92	2.4
389 1 1 19.2	26.88	2.4
390 1 1 19.2	27.84	2.4
391 1 1 24.0	0.0	7.2
392 1 1 24.0	0.96	7.2
393 1 1 24.0	1.92	7.2
394 1 1 24.0	2.88	7.2
395 1 1 24.0	3.84	7.2
396 1 1 24.0	4.8	7.2
397 1 1 24.0	5.76	7.2
398 1 1 24.0	6.72	7.2
399 1 1 24.0	7.68	7.2
400 1 1 24.0	8.64	7.2
401 1 1 24.0	9.6	7.2
402 1 1 24.0	10.56	7.2
403 1 1 24.0	11.52	7.2
404 1 1 24.0	12.48	7.2
405 1 1 24.0	13.44	7.2
406 1 1 24.0	14.4	7.2
407 1 1 24.0	15.36	7.2
408 1 1 24.0	16.32	7.2
409 1 1 24.0	17.28	7.2
410 1 1 24.0	18.24	7.2
411 1 1 24.0	19.2	7.2
412 1 1 24.0	20.16	7.2
413 1 1 24.0	21.12	7.2
414 1 1 24.0	22.08	7.2
415 1 1 24.0	23.04	7.2
416 1 1 24.0	24.0	7.2
417 1 1 24.0	24.96	7.2
418 1 1 24.0	25.92	7.2
419 1 1 24.0	26.88	7.2
420 1 1 24.0	27.84	7.2
421 1 1 2.4	9.6	0.0
422 1 1 2.4	9.6	0.96
423 1 1 2.4	9.6	1.92
424 1 1 2.4	9.6	2.88
425 1 1 2.4	9.6	3.84
426 1 1 2.4	9.6	4.8
427 1 1 2.4	9.6	5.76
428 1 1 2.4	9.6	6.72
429 1 1 2.4	9.6	7.68
430 1 1 2.4	9.6	8.64
431 1 1 2.4	9.6	9.6
432 1 1 2.4	9.6	10.56
433 1 1 2.4	9.6	11.52
434 1 1 2.4	9.6	12.48
435 1 1 2.4	9.6	13.44
436 1 1 2.4	9.6	14.4
437 1 1 2.4	9.6	15.36
438 1 1 2.4	9.6	16.32
439 1 1 2.4	9.6	17.28
440 1 1 2.4	9.6	18.24
441 1 1 2.4	9.6	19.2
442 1 1 2.4	9.6	20.16
443 1 1 2.4	9.6	21.12
444 1 1 2.4	9.6	22.08
445 1 1 2.4	9.6	23.04
446 1 1 2.4	9.6	24.0
447 1 1 2.4	9.6	24.96
448 1 1 2.4	9.6	25.92
449 1 1 2.4	9.6	26.88
450 1 1 2.4	9.6	27.84
451 1 1 7.2	14.4	0.0
452 1 1 7.2	14.4	0.96
453 1 1 7.2	14.4	1.92
454 1 1 7.2	14.4	2.88
455 1 1 7.2	14.4	3.84
456 1 1 7.2	14.4	4.8
457 1 1 7.2	14.4	5.76
458 1 1 7.2	14.4	6.72
459 1 1 7.2	14.4	7.68
460 1 1 7.2	14.4	8.64
461 1 1 7.2	14.4	9.6
462 1 1 7.2	14.4	10.56
463 1 1 7.2	14.4	11.52
464 1 1 7.2	14.4	12.48
465 1 1 7.2	14.4	13.44
466 1 1 7.2	14.4	14.4
467 1 1 7.2	14.4	15.36
468 1 1 7.2	14.4	16.32
469 1 1 7.2	14.4	17.28
470 1 1 7.2	14.4	18.24
471 1 1 7.2	14.4	19.2
472 1 1 7.2	14.4	20.16
473 1 1 7.2	14.4	21.12
474 1 1 7.2	14.4	22.08
475 1 1 7.2	14.4	23.04
476 1 1 7.2	14.4	24.0
477 1 1 7.2	14.4	24.96
478 1 1 7.2	14.4	25.92
479 1 1 7.2	14.4	26.88
480 1 1 7.2	14.4	27.84
481 1 1 0.0	12.0	0.0
482 1 1 0.96	12.0	-2.55663e-07
483 1 1 1.92	12.0	-5.11327e-07
484 1 1 2.88	12.0	-7.6699e-07
485 1 1 3.84	12.0	-1.02265e-06
486 1 1 4.8	12.0	-1.27832e-06
487 1 1 5.76	12.0	-1.53398e-06
488 1 1 6.72	12.0	-1.78964e-06
489 1 1 7.68	12.0	-2.04531e-06
490 1 1 8.64	12.0	-2.30097e-06
491 1 1 9.6	12.0	-2.30097e-06
492 1 1 10.56	12.0	-2.30097e-06
493 1 1 11.52	12.0	-2.30097e-06
494 1 1 12.48	12.0	-2.30097e-06
495 1 1 13.44	12.0	-2.30097e-06
496 1 1 14.4	12.0	-2.30097e-06
497 1 1 15.36	12.0	-2.30097e-06
498 1 1 16.32	12.0	-2.30097e-06
499 1 1 17.28	12.0	-2.30097e-06
500 1 1 18.24	12.0	-2.30097e-06
501 1 1 19.2	12.0	-2.30097e-06
502 1 1 20.16	12.0	-2.30097e-06
503 1 1 21.12	12.0	-2.30097e-06
504 1 1 22.08	12.0	-2.30097e-06
505 1 1 23.04	12.0	-2.30097e-06
506 1 1 24.0	12.0	-2.30097e-06
507 1 1 24.96	12.0	-2.30097e-06
508 1 1 25.92	12.0	-2.30097e-06
509 1 1 26.88	12.0	-2.30097e-06
510 1 1 27.84	12.0	-2.30097e-06
511 1 1 0.0	16.8	4.8
512 1 1 0.96	16.8	4.8
513 1 1 1.92	16.8	4.8
514 1 1 2.88	16.8	4.8
515 1 1 3.84	16.8	4.8
516 1 1 4.8	16.8	4.8
517 1 1 5.76	16.8	4.8
518 1 1 6.72	16.8	4.8
519 1 1 7.68	16.8	4.8
520 1 1 8.64	16.8	4.8
521 1 1 9.6	16.8	4.8
522 1 1 10.56	16.8	4.8
523 1 1 11.52	16.8	4.8
524 1 1 12.48	16.8	4.8
525 1 1 13.44	16.8	4.8
526 1 1 14.4	16.8	4.8
527 1 1 15.36	16.8	4.8
528 1 1 16.32	16.8	4.8
529 1 1 17.28	16.8	4.8
530 1 1 18.24	16.8	4.8
531 1 1 19.2	16.8	4.8
532 1 1 20.16	16.8	4.8
533 1 1 21.12	16.8	4.8
534 1 1 22.08	16.8	4.8
535 1 1 23.04	16.8	4.8
536 1 1 24.0	16.8	4.8
537 1 1 24.96	16.8	4.8
538 1 1 25.92	16.8	4.8
539 1 1 26.88	16.8	4.8
540 1 1 27.84	16.8	4.8
541 1 1 12.0	9.6	0.0
542 1 1 12.0	9.6	0.949677
543 1 1 12.0	9.6	1.89935
544 1 1 12.0	9.6	2.84903
545 1 1 12.0	9.6	3.79871
546 1 1 12.0	9.6	4.74839
547 1 1 12.0	9.6	5.69806
548 1 1 12.0	9.6	6.64774
549 1 1 12.0	9.6	7.59742
550 1 1 12.0	9.6	8.5471
551 1 1 12.3295	9.6	9.43087
552 1 1 12.6948	9.6	10.3075
553 1 1 13.06	9.6	11.1841
554 1 1 13.4253	9.6	12.0607
555 1 1 13.7906	9.6	12.9374
556 1 1 14.1558	9.6	13.814
557 1 1 14.5211	9.6	14.6906
558 1 1 14.8864	9.6	15.5672
559 1 1 15.2516	9.6	16.4439
560 1 1 15.6169	9.6	17.3205
561 1 1 15.9821	9.6	18.1971
562 1 1 15.6526	9.6	19.0737
563 1 1 15.2873	9.6	19.9504
564 1 1 14.9221	9.6	20.827
565 1 1 14.5568	9.6	21.7036
566 1 1 14.1916	9.6	22.5802
567 1 1 13.8263	9.6	23.4569
568 1 1 13.461	9.6	24.3335
569 1 1 13.0958	9.6	25.2101
570 1 1 12.7305	9.6	26.0868
571 1 1 12.3653	9.6	26.9634
572 1 1 12.0	9.6	27.84
573 1 1 16.8	14.4	0.0
574 1 1 16.8	14.4	0.96
575 1 1 16.8	14.4	1.92
576 1 1 16.8	14.4	2.88
577 1 1 16.8	14.4	3.84
578 1 1 16.8	14.4	4.8
579 1 1 16.8	14.4	5.76
580 1 1 16.8	14.4	6.72
581 1 1 16.8	14.4	7.68
582 1 1 16.8	14.4	8.64
583 1 1 16.8	14.4	9.6
584 1 1 16.8	14.4	10.56
585 1 1 16.8	14.4	11.52
586 1 1 16.8	14.4	12.48
587 1 1 16.8	14.4	13.44
588 1 1 16.8	14.4	14.4
589 1 1 16.8	14.4	15.36
590 1 1 16.8	14.4	16.32
591 1 1 16.8	14.4	17.28
592 1 1 16.8	14.4	18.24
593 1 1 16.8	14.4	19.2
594 1 1 16.8	14.4	20.16
595 1 1 16.8	14.4	21.12
596 1 1 16.8	14.4	22.08
597 1 1 16.8	14.4	23.04
598 1 1 16.8	14.4	24.0
599 1 1 16.8	14.4	24.96
600 1 1 16.8	14.4	25.92
601 1 1 16.8	14.4	26.88
602 1 1 16.8	14.4	27.84
603 1 1 21.6	9.6	0.0
604 1 1 21.6	9.6	0.96
605 1 1 21.6	9.6	1.92
606 1 1 21.6	9.6	2.88
607 1 1 21.6	9.6	3.84
608 1 1 21.6	9.6	4.8
609 1 1 21.6	9.6	5.76
610 1 1 21.6	9.6	6.72
611 1 1 21.6	9.6	7.68
612 1 1 21.6	9.6	8.64
613 1 1 21.6	9.6	9.6
614 1 1 21.6	9.6	10.56
615 1 1 21.6	9.6	11.52
616 1 1 21.6	9.6	12.48
617 1 1 21.6	9.6	13.44
618 1 1 21.6	9.6	14.4
619 1 1 21.6	9.6	15.36
620 1 1 21.6	9.6	16.32
621 1 1 21.6	9.6	17.28
622 1 1 21.6	9.6	18.24
623 1 1 21.6	9.6	19.2
624 1 1 21.6	9.6	20.16
625 1 1 21.6	9.6	21.12
626 1 1 21.6	9.6	22.08
627 1 1 21.6	9.6	23.04
628 1 1 21.6	9.6	24.0
629 1 1 21.6	9.6	24.96
630 1 1 21.6	9.6	25.92
631 1 1 21.6	9.6	26.88
632 1 1 21.6	9.6	27.84
633 1 1 26.4	14.4	0.0
634 1 1 26.4	14.4	0.96
635 1 1 26.4	14.4	1.92
636 1 1 26.4	14.4	2.88
637 1 1 26.4	14.4	3.84
638 1 1 26.4	14.4	4.8
639 1 1 26.4	14.4	5.76
640 1 1 26.4	14.4	6.72
641 1 1 26.4	14.4	7.68
642 1 1 26.4	14.4	8.64
643 1 1 26.4	14.4	9.6
644 1 1 26.4	14.4	10.56
645 1 1 26.4	14.4	11.52
646 1 1 26.4	14.4	12.48
647 1 1 26.4	14.4	13.44
648 1 1 26.4	14.4	14.4
649 1 1 26.4	14.4	15.36
650 1 1 26.4	14.4	16.32
651 1 1 26.4	14.4	17.28
652 1 1 26.4	14.4	18.24
653 1 1 26.4	14.4	19.2
654 1 1 26.4	14.4	20.16
655 1 1 26.4	14.4	21.12
656 1 1 26.4	14.4	22.08
657 1 1 26.4	14.4	23.04
658 1 1 26.4	14.4	24.0
659 1 1 26.4	14.4	24.96
660 1 1 26.4	14.4	25.92
661 1 1 26.4	14.4	26.88
662 1 1 26.4	14.4	27.84
663 1 1 2.4	19.2	0.0
664 1 1 2.4	19.2	0.96
665 1 1 2.4	19.2	1.92
666 1 1 2.4	19.2	2.88
667 1 1 2.4	19.2	3.84
668 1 1 2.4	19.2	4.8
669 1 1 2.4	19.2	5.76
670 1 1 2.4	19.2	6.72
671 1 1 2.4	19.2	7.68
672 1 1 2.4	19.2	8.64
673 1 1 2.4	19.2	9.6
674 1 1 2.4	19.2	10.56
675 1 1 2.4	19.2	11.52
676 1 1 2.4	19.2	12.48
677 1 1 2.4	19.2	13.44
678 1 1 2.4	19.2	14.4
679 1 1 2.4	19.2	15.36
680 1 1 2.4	19.2	16.32
681 1 1 2.4	19.2	17.28
682 1 1 2.4	19.2	18.24
683 1 1 2.4	19.2	19.2
684 1 1 2.4	19.2	20.16
685 1 1 2.4	19.2	21.12
686 1 1 2.4	19.2	22.08
687 1 1 2.4	19.2	23.04
688 1 1 2.4	19.2	24.0
689 1 1 2.4	19.2	24.96
690 1 1 2.4	19.2	25.92
691 1 1 2.4	19.2	26.88
692 1 1 2.4	19.2	27.84
693 1 1 7.2	24.0	0.0
694 1 1 7.2	24.0	0.96
695 1 1 7.2	24.0	1.92
696 1 1 7.2	24.0	2.88
697 1 1 7.2	24.0	3.84
698 1 1 7.2	24.0	4.8
699 1 1 7.2	24.0	5.76
700 1 1 7.2	24.0	6.72
701 1 1 7.2	24.0	7.68
702 1 1 7.2	24.0	8.64
703 1 1 7.2	24.0	9.6
704 1 1 7.2	24.0	10.56
705 1 1 7.2	24.0	11.52
706 1 1 7.2	24.0	12.48
707 1 1 7.2	24.0	13.44
708 1 1 7.2	24.0	14.4
709 1 1 7.2	24.0	15.36
710 1 1 7.2	24.0	16.32
711 1 1 7.2	24.0	17.28
712 1 1 7.2	24.0	18.24
713 1 1 7.2	24.0	19.2
714 1 1 7.2	24.0	20.16
715 1 1 7.2	24.0	21.12
716 1 1 7.2	24.0	22.08
717 1 1 7.2	24.0	23.04
718 1 1 7.2	24.0	24.0
719 1 1 7.2	24.0	24.96
720 1 1 7.2	24.0	25.92
721 1 1 7.2	24.0	26.88
722 1 1 7.2	24.0	27.84
723 1 1 0.0	21.6	0.0
724 1 1 0.96	21.6	-2.55663e-07
725 1 1 1.92	21.6	-5.11327e-07
726 1 1 2.88	21.6	-7.6699e-07
727 1 1 3.84	21.6	-1.02265e-06
728 1 1 4.8	21.6	-1.27832e-06
729 1 1 5.76	21.6	-1.53398e-06
730 1 1 6.72	21.6	-1.78964e-06
731 1 1 7.68	21.6	-2.04531e-06
732 1 1 8.64	21.6	-2.30097e-06
733 1 1 9.6	21.6	-2.30097e-06
734 1 1 10.56	21.6	-2.30097e-06
735 1 1 11.52	21.6	-2.30097e-06
736 1 1 12.48	21.6	-2.30097e-06
737 1 1 13.44	21.6	-2.30097e-06
738 1 1 14.4	21.6	-2.30097e-06
739 1 1 15.36	21.6	-2.30097e-06
740 1 1 16.32	21.6	-2.30097e-06
741 1 1 17.28	21.6	-2.30097e-06
742 1 1 18.24	21.6	-2.30097e-06
743 1 1 19.2	21.6	-2.30097e-06
744 1 1 20.16	21.6	-2.30097e-06
745 1 1 21.12	21.6	-2.30097e-06
746 1 1 22.08	21.6	-2.30097e-06
747 1 1 23.04	21.6	-2.30097e-06
748 1 1 24.0	21.6	-2.30097e-06
749 1 1 24.96	21.6	-2.30097e-06
750 1 1 25.92	21.6	-2.30097e-06
751 1 1 26.88	21.6	-2.30097e-06
752 1 1 27.84	21.6	-2.30097e-06
753 1 1 0.0	26.4	4.8
754 1 1 0.96	26.4	4.8
755 1 1 1.92	26.4	4.8
756 1 1 2.88	26.4	4.8
757 1 1 3.84	26.4	4.8
758 1 1 4.8	26.4	4.8
759 1 1 5.76	26.4	4.8
760 1 1 6.72	26.4	4.8
761 1 1 7.68	26.4	4.8
762 1 1 8.64	26.4	4.8
763 1 1 9.6	26.4	4.8
764 1 1 10.56	26.4	4.8
765 1 1 11.52	26.4	4.8
766 1 1 12.48	26.4	4.8
767 1 1 13.44	26.4	4.8
768 1 1 14.4	26.4	4.8
769 1 1 15.36	26.4	4.8
770 1 1 16.32	26.4	4.8
771 1 1 17.28	26.4	4.8
772 1 1 18.24	26.4	4.8
773 1 1 19.2	26.4	4.8
774 1 1 20.16	26.4	4.8
775 1 1 21.12	26.4	4.8
776 1 1 22.08	26.4	4.8
777 1 1 23.04	26.4	4.8
778 1 1 24.0	26.4	4.8
779 1 1 24.96	26.4	4.8
780 1 1 25.92	26.4	4.8
781 1 1 26.88	26.4	4.8
782 1 1 27.84	26.4	4.8
783 1 1 12.0	19.2	0.0
784 1 1 12.0	19.2	0.96
785 1 1 12.0	19.2	1.92
786 1 1 12.0	19.2	2.88
787 1 1 12.0	19.2	3.84
788 1 1 12.0	19.2	4.8
789 1 1 12.0	19.2	5.76
790 1 1 12.0	19.2	6.72
791 1 1 12.0	19.2	7.68
792 1 1 12.0	19.2	8.64
793 1 1 12.0	19.2	9.6
794 1 1 12.0	19.2	10.56
795 1 1 12.0	19.2	11.52
796 1 1 12.0	19.2	12.48
797 1 1 12.0	19.2	13.44
798 1 1 12.0	19.2	14.4
799 1 1 12.0	19.2	15.36
800 1 1 12.0	19.2	16.32
801 1 1 12.0	19.2	17.28
802 1 1 12.0	19.2	18.24
803 1 1 12.0	19.2	19.2
804 1 1 12.0	19.2	20.16
805 1 1 12.0	19.2	21.12
806 1 1 12.0	19.2	22.08
807 1 1 12.0	19.2	23.04
808 1 1 12.0	19.2	24.0
809 1 1 12.0	19.2	24.96
810 1 1 12.0	19.2	25.92
811 1 1 12.0	19.2	26.88
812 1 1 12.0	19.2	27.84
813 1 1 16.8	24.0	0.0
814 1 1 16.8	24.0	0.96
815 1 1 16.8	24.0	1.92
816 1 1 16.8	24.0	2.88
817 1 1 16.8	24.0	3.84
818 1 1 16.8	24.0	4.8
819 1 1 16.8	24.0	5.76
820 1 1 16.8	24.0	6.72
821 1 1 16.8	24.0	7.68
822 1 1 16.8	24.0	8.64
823 1 1 16.8	24.0	9.6
824 1 1 16.8	24.0	10.56
825 1 1 16.8	24.0	11.52
826 1 1 16.8	24.0	12.48
827 1 1 16.8	24.0	13.44
828 1 1 16.8	24.0	14.4
829 1 1 16.8	24.0	15.36
830 1 1 16.8	24.0	16.32
831 1 1 16.8	24.0	17.28
832 1 1 16.8	24.0	18.24
833 1 1 16.8	24.0	19.2
834 1 1 16.8	24.0	20.16
835 1 1 16.8	24.0	21.12
836 1 1 16.8	24.0	22.08
837 1 1 16.8	24.0	23.04
838 1 1 16.8	24.0	24.0
839 1 1 16.8	24.0	24.96
840 1 1 16.8	24.0	25.92
841 1 1 16.8	24.0	26.88
842 1 1 16.8	24.0	27.84
843 1 1 21.6	19.2	0.0
844 1 1 21.6	19.2	0.96
845 1 1 21.6	19.2	1.92
846 1 1 21.6	19.2	2.88
847 1 1 21.6	19.2	3.84
848 1 1 21.6	19.2	4.8
849 1 1 21.6	19.2	5.76
850 1 1 21.6	19.2	6.72
851 1 1 21.6	19.2	7.68
852 1 1 21.6	19.2	8.64
853 1 1 21.6	19.2	9.6
854 1 1 21.6	19.2	10.56
855 1 1 21.6	19.2	11.52
856 1 1 21.6	19.2	12.48
857 1 1 21.6	19.2	13.44
858 1 1 21.6	19.2	14.4
859 1 1 21.6	19.2	15.36
860 1 1 21.6	19.2	16.32
861 1 1 21.6	19.2	17.28
862 1 1 21.6	19.2	18.24
863 1 1 21.6	19.2	19.2
864 1 1 21.6	19.2	20.16
865 1 1 21.6	19.2	21.12
866 1 1 21.6	19.2	22.08
867 1 1 21.6	19.2	23.04
868 1 1 21.6	19.2	24.0
869 1 1 21.6	19.2	24.96
870 1 1 21.6	19.2	25.92
871 1 1 21.6	19.2	26.88
872 1 1 21.6	19.2	27.84
873 1 1 26.4	24.0	0.0
874 1 1 26.4	24.0	0.96
875 1 1 26.4	24.0	1.92
876 1 1 26.4	24.0	2.88
877 1 1 26.4	24.0	3.84
878 1 1 26.4	24.0	4.8
879 1 1 26.4	24.0	5.76
880 1 1 26.4	24.0	6.72
881 1 1 26.4	24.0	7.68
882 1 1 26.4	24.0	8.64
883 1 1 26.4	24.0	9.6
884 1 1 26.4	24.0	10.56
885 1 1 26.4	24.0	11.52
886 1 1 26.4	24.0	12.48
887 1 1 26.4	24.0	13.44
888 1 1 26.4	24.0	14.4
889 1 1 26.4	24.0	15.36
890 1 1 26.4	24.0	16.32
891 1 1 26.4	24.0	17.28
892 1 1 26.4	24.0	18.24
893 1 1 26.4	24.0	19.2
894 1 1 26.4	24.0	20.16
895 1 1 26.4	24.0	21.12
896 1 1 26.4	24.0	22.08
897 1 1 26.4	24.0	23.04
898 1 1 26.4	24.0	24.0
899 1 1 26.4	24.0	24.96
900 1 1 26.4	24.0	25.92
901 1 1 26.4	24.0	26.88
902 1 1 26.4	24.0	27.84
903 1 1 0.0	2.4	9.6
904 1 1 0.96	2.4	9.6
905 1 1 1.92	2.4	9.6
906 1 1 2.88	2.4	9.6
907 1 1 3.84	2.4	9.6
908 1 1 4.8	2.4	9.6
909 1 1 5.76	2.4	9.6
910 1 1 6.72	2.4	9.6
911 1 1 7.68	2.4	9.6
912 1 1 8.64	2.4	9.6
913 1 1 9.6	2.4	9.6
914 1 1 10.56	2.4	9.6
915 1 1 11.52	2.4	9.6
916 1 1 12.48	2.4	9.6
917 1 1 13.44	2.4	9.6
918 1 1 14.4	2.4	9.6
919 1 1 15.36	2.4	9.6
920 1 1 16.32	2.4	9.6
921 1 1 17.28	2.4	9.6
922 1 1 18.24	2.4	9.6
923 1 1 19.2	2.4	9.6
924 1 1 20.16	2.4	9.6
925 1 1 21.12	2.4	9.6
926 1 1 22.08	2.4	9.6
927 1 1 23.04	2.4	9.6
928 1 1 24.0	2.4	9.6
929 1 1 24.96	2.4	9.6
930 1 1 25.92	2.4	9.6
931 1 1 26.88	2.4	9.6
932 1 1 27.84	2.4	9.6
933 1 1 0.0	7.2	14.4
934 1 1 0.96	7.2	14.4
935 1 1 1.92	7.2	14.4
936 1 1 2.88	7.2	14.4
937 1 1 3.84	7.2	14.4
938 1 1 4.8	7.2	14.4
939 1 1 5.76	7.2	14.4
940 1 1 6.72	7.2	14.4
941 1 1 7.68	7.2	14.4
942 1 1 8.64	7.2	14.4
943 1 1 9.6	7.2	14.4
944 1 1 10.56	7.2	14.4
945 1 1 11.52	7.2	14.4
946 1 1 12.48	7.2	14.4
947 1 1 13.44	7.2	14.4
948 1 1 14.4	7.2	14.4
949 1 1 15.36	7.2	14.4
950 1 1 16.32	7.2	14.4
951 1 1 17.28	7.2	14.4
952 1 1 18.24	7.2	14.4
953 1 1 19.2	7.2	14.4
954 1 1 20.16	7.2	14.4
955 1 1 21.12	7.2	14.4
956 1 1 22.08	7.2	14.4
957 1 1 23.04	7.2	14.4
958 1 1 24.0	7.2	14.4
959 1 1 24.96	7.2	14.4
960 1 1 25.92	7.2	14.4
961 1 1 26.88	7.2	14.4
962 1 1 27.84	7.2	14.4
963 1 1 0.0	0.0	12.0
964 1 1 0.0	0.96	12.0
965 1 1 0.0	1.92	12.0
966 1 1 0.0	2.88	12.0
967 1 1 0.0	3.84	12.0
968 1 1 0.0	4.8	12.0
969 1 1 0.0	5.76	12.0
970 1 1 0.0	6.72	12.0
971 1 1 0.0	7.68	12.0
972 1 1 0.0	8.64	12.0
973 1 1 0.0	9.6	12.0
974 1 1 0.0	10.56	12.0
975 1 1 0.0	11.52	12.0
976 1 1 0.0	12.48	12.0
977 1 1 0.0	13.44	12.0
978 1 1 0.0	14.4	12.0
979 1 1 0.0	15.36	12.0
980 1 1 0.0	16.32	12.0
981 1 1 0.0	17.28	12.0
982 1 1 0.0	18.24	12.0
983 1 1 0.0	19.2	12.0
984 1 1 0.0	20.16	12.0
985 1 1 0.0	21.12	12.0
986 1 1 0.0	22.08	12.0
987 1 1 0.0	23.04	12.0
988 1 1 0.0	24.0	12.0
989 1 1 0.0	24.96	12.0
990 1 1 0.0	25.92	12.0
991 1 1 0.0	26.88	12.0
992 1 1 0.0	27.84	12.0
993 1 1 4.8	0.0	16.8
994 1 1 4.8	0.96	16.8
995 1 1 4.8	1.92	16.8
996 1 1 4.8	2.88	16.8
997 1 1 4.8	3.84	16.8
998 1 1 4.8	4.8	16.8
999 1 1 4.8	5.76	16.8
1000 1 1 4.8	6.72	16.8
1001 1 1 4.8	7.68	16.8
1002 1 1 4.8	8.64	16.8
1003 1 1 4.8	9.6	16.8
1004 1 1 4.8	10.56	16.8
1005 1 1 4.8	11.52	16.8
1006 1 1 4.8	12.48	16.8
1007 1 1 4.8	13.44	16.8
1008 1 1 4.8	14.4	16.8
1009 1 1 4.8	15.36	16.8
1010 1 1 4.8	16.32	16.8
1011 1 1 4.8	17.28	16.8
1012 1 1 4.8	18.24	16.8
1013 1 1 4.8	19.2	16.8
1014 1 1 4.8	20.16	16.8
1015 1 1 4.8	21.12	16.8
1016 1 1 4.8	22.08	16.8
1017 1 1 4.8	23.04	16.8
1018 1 1 4.8	24.0	16.8
1019 1 1 4.8	24.96	16.8
1020 1 1 4.8	25.92	16.8
1021 1 1 4.8	26.88	16.8
1022 1 1 4.8	27.84	16.8
1023 1 1 9.6	0.0	12.0
1024 1 1 9.6	0.96	12.0
1025 1 1 9.6	1.92	12.0
1026 1 1 9.6	2.88	12.0
1027 1 1 9.6	3.84	12.0
1028 1 1 9.6	4.8	12.0
1029 1 1 9.6	5.76	12.0
1030 1 1 9.6	6.72	12.0
1031 1 1 9.6	7.68	12.0
1032 1 1 9.6	8.64	12.0
1033 1 1 9.6	9.6	12.0
1034 1 1 9.6	10.56	12.0
1035 1 1 9.6	11.52	12.0
1036 1 1 9.6	12.48	12.0
1037 1 1 9.6	13.44	12.0
1038 1 1 9.6	14.4	12.0
1039 1 1 9.6	15.36	12.0
1040 1 1 9.6	16.32	12.0
1041 1 1 9.6	17.28	12.0
1042 1 1 9.6	18.24	12.0
1043 1 1 9.6	19.2	12.0
1044 1 1 9.6	20.16	12.0
1045 1 1 9.6	21.12	12.0
1046 1 1 9.6	22.08	12.0
1047 1 1 9.6	23.04	12.0
1048 1 1 9.6	24.0	12.0
1049 1 1 9.6	24.96	12.0
1050 1 1 9.6	25.92	12.0
1051 1 1 9.6	26.88	12.0
1052 1 1 9.6	27.84	12.0
1053 1 1 14.4	0.0	16.8
1054 1 1 14.4	0.96	16.8
1055 1 1 14.4	1.92	16.8
1056 1 1 14.4	2.88	16.8
1057 1 1 14.4	3.84	16.8
1058 1 1 14.4	4.8	16.8
1059 1 1 14.4	5.76	16.8
1060 1 1 14.4	6.72	16.8
1061 1 1 14.4	7.68	16.8
1062 1 1 14.4	8.64	16.8
1063 1 1 14.4	9.6	16.8
1064 1 1 14.4	10.56	16.8
1065 1 1 14.4	11.52	16.8
1066 1 1 14.4	12.48	16.8
1067 1 1 14.4	13.44	16.8
1068 1 1 14.4	14.4	16.8
1069 1 1 14.4	15.36	16.8
1070 1 1 14.4	16.32	16.8
1071 1 1 14.4	17.28	16.8
1072 1 1 14.4	18.24	16.8
1073 1 1 14.4	19.2	16.8
1074 1 1 14.4	20.16	16.8
1075 1 1 14.4	21.12	16.8
1076 1 1 14.4	22.08	16.8
1077 1 1 14.4	23.04	16.8
1078 1 1 14.4	24.0	16.8
1079 1 1 14.4	24.96	16.8
1080 1 1 14.4	25.92	16.8
1081 1 1 14.4	26.88	16.8
1082 1 1 14.4	27.84	16.8
1083 1 1 19.2	0.0	12.0
1084 1 1 19.2	0.96	12.0
1085 1 1 19.2	1.92	12.0
1086 1 1 19.2	2.88	12.0
1087 1 1 19.2	3.84	12.0
1088 1 1 19.2	4.8	12.0
1089 1 1 19.2	5.76	12.0
1090 1 1 19.2	6.72	12.0
1091 1 1 19.2	7.68	12.0
1092 1 1 19.2	8.64	12.0
1093 1 1 19.2	9.6	12.0
1094 1 1 19.2	10.56	12.0
1095 1 1 19.2	11.52	12.0
1096 1 1 19.2	12.48	12.0
1097 1 1 19.2	13.44	12.0
1098 1 1 19.2	14.4	12.0
1099 1 1 19.2	15.36	12.0
1100 1 1 19.2	16.32	12.0
1101 1 1 19.2	17.28	12.0
1102 1 1 19.2	18.24	12.0
1103 1 1 19.2	19.2	12.0
1104 1 1 19.2	20.16	12.0
1105 1 1 19.2	21.12	12.0
1106 1 1 19.2	22.08	12.0
1107 1 1 19.2	23.04	12.0
1108 1 1 19.2	24.0	12.0
1109 1 1 19.2	24.96	12.0
1110 1 1 19.2	25.92	12.0
1111 1 1 19.2	26.88	12.0
1112 1 1 19.2	27.84	12.0
1113 1 1 24.0	0.0	16.8
1114 1 1 24.0	0.96	16.8
1115 1 1 24.0	1.92	16.8
1116 1 1 24.0	2.88	16.8
1117 1 1 24.0	3.84	16.8
1118 1 1 24.0	4.8	16.8
1119 1 1 24.0	5.76	16.8
1120 1 1 24.0	6.72	16.8
1121 1 1 24.0	7.68	16.8
1122 1 1 24.0	8.64	16.8
1123 1 1 24.0	9.6	16.8
1124 1 1 24.0	10.56	16.8
1125 1 1 24.0	11.52	16.8
1126 1 1 24.0	12.48	16.8
1127 1 1 24.0	13.44	16.8
1128 1 1 24.0	14.4	16.8
1129 1 1 24.0	15.36	16.8
1130 1 1 24.0	16.32	16.8
1131 1 1 24.0	17.28	16.8
1132 1 1 24.0	18.24	16.8
1133 1 1 24.0	19.2	16.8
1134 1 1 24.0	20.16	16.8
1135 1 1 24.0	21.12	16.8
1136 1 1 24.0	22.08	16.8
1137 1 1 24.0	23.04	16.8
1138 1 1 24.0	24.0	16.8
1139 1 1 24.0	24.96	16.8
1140 1 1 24.0	25.92	16.8
1141 1 1 24.0	26.88	16.8
1142 1 1 24.0	27.84	16.8
1143 1 1 0.0	12.0	9.6
1144 1 1 0.96	12.0	9.6
1145 1 1 1.92	12.0	9.6
1146 1 1 2.88	12.0	9.6
1147 1 1 3.84	12.0	9.6
1148 1 1 4.8	12.0	9.6
1149 1 1 5.76	12.0	9.6
1150 1 1 6.72	12.0	9.6
1151 1 1 7.68	12.0	9.6
1152 1 1 8.64	12.0	9.6
1153 1 1 9.6	12.0	9.6
1154 1 1 10.56	12.0	9.6
1155 1 1 11.52	12.0	9.6
1156 1 1 12.48	12.0	9.6
1157 1 1 13.44	12.0	9.6
1158 1 1 14.4	12.0	9.6
1159 1 1 15.36	12.0	9.6
1160 1 1 16.32	12.0	9.6
1161 1 1 17.28	12.0	9.6
1162 1 1 18.24	12.0	9.6
1163 1 1 19.2	12.0	9.6
1164 1 1 20.16	12.0	9.6
1165 1 1 21.12	12.0	9.6
1166 1 1 22.08	12.0	9.6
1167 1 1 23.04	12.0	9.6
1168 1 1 24.0	12.0	9.6
1169 1 1 24.96	12.0	9.6
1170 1 1 25.92	12.0	9.6
1171 1 1 26.88	12.0	9.6
1172 1 1 27.84	12.0	9.6
1173 1 1 0.0	16.8	14.4
1174 1 1 0.96	16.8	14.4
1175 1 1 1.92	16.8	14.4
1176 1 1 2.88	16.8	14.4
1177 1 1 3.84	16.8	14.4
1178 1 1 4.8	16.8	14.4
1179 1 1 5.76	16.8	14.4
1180 1 1 6.72	16.8	14.4
1181 1 1 7.68	16.8	14.4
1182 1 1 8.64	16.8	14.4
1183 1 1 9.6	16.8	14.4
1184 1 1 10.56	16.8	14.4
1185 1 1 11.52	16.8	14.4
1186 1 1 12.48	16.8	14.4
1187 1 1 13.44	16.8	14.4
1188 1 1 14.4	16.8	14.4
1189 1 1 15.36	16.8	14.4
1190 1 1 16.32	16.8	14.4
1191 1 1 17.28	16.8	14.4
1192 1 1 18.24	16.8	14.4
1193 1 1 19.2	16.8	14.4
1194 1 1 20.16	16.8	14.4