# LAMMPS data file 

42 atoms
42 bonds
42 angles

1 atom types
1 bond types
1 angle types

-0.98 5.76 xlo xhi
-0.98 5.76 ylo yhi
-0.98 5.76 zlo zhi

Masses

 1 1

Atoms

1 1 1 0 0 1.512
2 1 1 0 0.96 1.512
3 1 1 0 1.92 1.512
4 1 1 0 2.88 1.512
5 1 1 0 3.84 1.512
6 1 1 0 4.8 1.512
7 1 1 0 5.76 1.512
8 1 1 3.024 0 4.536
9 1 1 3.024 0.96 4.536
10 1 1 3.024 1.92 4.536
11 1 1 3.024 2.88 4.536
12 1 1 3.024 3.84 4.536
13 1 1 3.024 4.8  4.536
14 1 1 3.024 5.76 4.536
15 1 1 1.512 0 0
16 1 1 1.512 0 0.96
17 1 1 1.512 0 1.92
18 1 1 1.512 0 2.88
19 1 1 1.512 0 3.84
20 1 1 1.512 0 4.8 
21 1 1 1.512 0 5.76
22 1 1 4.536 3.024 0
23 1 1 4.536 3.024 0.96
24 1 1 4.536 3.024 1.92
25 1 1 4.536 3.024 2.88
26 1 1 4.536 3.024 3.84
27 1 1 4.536 3.024 4.8 
28 1 1 4.536 3.024 5.76
29 1 1 0 1.512 0 
30 1 1 0.96 1.512 0 
31 1 1 1.92 1.512 0 
32 1 1 2.88 1.512 0 
33 1 1 3.84 1.512 0 
34 1 1 4.8  1.512 0 
35 1 1 5.76 1.512 0 
36 1 1 0 4.536 3.024 
37 1 1 0.96 4.536 3.024 
38 1 1 1.92 4.536 3.024 
39 1 1 2.88 4.536 3.024 
40 1 1 3.84 4.536 3.024 
41 1 1 4.8  4.536 3.024 
42 1 1 5.76 4.536 3.024 

Bonds

1 1 1 2 
2 1 2 3
3 1 3 4 
4 1 4 5
5 1 5 6
6 1 6 7
7 1 7 1
8 1 8 9
9 1 9 10
10 1 10 11
11 1 11 12 
12 1 12 13
13 1 13 14 
14 1 14 8
15 1 15 16
16 1 16 17
17 1 17 18
18 1 18 19
19 1 19 20
20 1 20 21
21 1 21 15
22 1 22 23
23 1 23 24
24 1 24 25
25 1 25 26
26 1 26 27
27 1 27 28
28 1 28 22
29 1 29 30
30 1 30 31
31 1 31 32
32 1 32 33
33 1 33 34 
34 1 34 35 
35 1 35 29 
36 1 36 37 
37 1 37 38 
38 1 38 39 
39 1 39 40 
40 1 40 41 
41 1 41 42 
42 1 42 36

Angles

1 1 1 2 3 
2 1 2 3 4 
3 1 3 4 5
4 1 4 5 6
5 1 5 6 7
6 1 6 7 1
7 1 7 1 2
8 1 8 9 10
9 1 9 10 11
10 1 10 11 12
11 1 11 12 13
12 1 12 13 14
13 1 13 14 8
14 1 14 8 9
15 1 15 16 17
16 1 16 17 18
17 1 17 18 19
18 1 18 19 20
19 1 19 20 11
20 1 20 21 15
21 1 21 15 16
22 1 22 23 24
23 1 23 24 25
24 1 24 25 26
25 1 25 26 27
26 1 26 27 28
27 1 27 28 22
28 1 28 22 23
29 1 29 30 31
30 1 30 31 32
31 1 31 32 33 
32 1 32 33 34
33 1 33 34 35
34 1 34 35 36
35 1 35 29 30
36 1 36 37 38
37 1 37 38 39
38 1 38 39 40
39 1 39 40 31
40 1 40 41 42 
41 1 41 42 36
42 1 42 36 37