# LAMMPS data file 

60 atoms
60 bonds
60 angles

1 atom types
1 bond types
1 angle types

0.0 9.6 xlo xhi 
0.0 9.6 ylo yhi 
0.0 9.6 zlo zhi 

Masses

 1 1

Atoms

1 1 1 0 0 2.16
2 1 1 0 0.96 2.16
3 1 1 0 1.92 2.16
4 1 1 0 2.88 2.16
5 1 1 0 3.84 2.16
6 1 1 0 4.8 2.16
7 1 1 0 5.76 2.16
8 1 1 0 6.72 2.16
9 1 1 0 7.68 2.16
10 1 1 0 8.64 2.16
11 1 1 4.32 0 6.48
12 1 1 4.32 0.96 6.48
13 1 1 4.32 1.92 6.48
14 1 1 4.32 2.88 6.48
15 1 1 4.32 3.84 6.48
16 1 1 4.32 4.8  6.48
17 1 1 4.32 5.76 6.48
18 1 1 4.32 6.72 6.48
19 1 1 4.32 7.68 6.48
20 1 1 4.32 8.64 6.48
21 1 1 2.16 0 0
22 1 1 2.16 0 0.96
23 1 1 2.16 0 1.92
24 1 1 2.16 0 2.88
25 1 1 2.16 0 3.84
26 1 1 2.16 0 4.8 
27 1 1 2.16 0 5.76
28 1 1 2.16 0 6.72
29 1 1 2.16 0 7.68
30  1 1 2.16 0 8.64
31 1 1 6.48 4.32 0
32 1 1 6.48 4.32 0.96
33 1 1 6.48 4.32 1.92
34 1 1 6.48 4.32 2.88
35 1 1 6.48 4.32 3.84
36 1 1 6.48 4.32 4.8 
37 1 1 6.48 4.32 5.76
38 1 1 6.48 4.32 6.72
39 1 1 6.48 4.32 7.68
40  1 1 6.48 4.32 8.64
41 1 1 0 2.16 0 
42 1 1 0.96 2.16 0 
43 1 1 1.92 2.16 0 
44 1 1 2.88 2.16 0 
45 1 1 3.84 2.16 0 
46 1 1 4.8  2.16 0 
47 1 1 5.76 2.16 0 
48 1 1 6.72 2.16 0 
49 1 1 7.68 2.16 0 
50 1 1 8.64 2.16 0
51 1 1 0 6.48 4.32 
52 1 1 0.96 6.48 4.32 
53 1 1 1.92 6.48 4.32 
54 1 1 2.88 6.48 4.32 
55 1 1 3.84 6.48 4.32 
56 1 1 4.8  6.48 4.32 
57 1 1 5.76 6.48 4.32 
58 1 1 6.72 6.48 4.32 
59 1 1 7.68 6.48 4.32 
60 1 1 8.64 6.48 4.32

Bonds

1 1 1 2 
2 1 2 3
3 1 3 4 
4 1 4 5
5 1 5 6
6 1 6 7
7 1 7 8
8 1 8 9
9 1 9 10
10 1 10 1
11 1 11 12 
12 1 12 13
13 1 13 14 
14 1 14 15
15 1 15 16
16 1 16 17
17 1 17 18
18 1 18 19
19 1 19 20
20 1 20 11
21 1 21 22
22 1 22 23
23 1 23 24
24 1 24 25
25 1 25 26
26 1 26 27
27 1 27 28
28 1 28 29
29 1 29 30
30 1 30 21
31 1 31 32
32 1 32 33
33 1 33 34 
34 1 34 35 
35 1 35 36 
36 1 36 37 
37 1 37 38 
38 1 38 39 
39 1 39 40 
40 1 40 31 
41 1 41 42 
42 1 42 43
43 1 43 44
44 1 44 45
45 1 45 46
46 1 46 47
47 1 47 48
48 1 48 49
49 1 49 50
50 1 50 41
51 1 51 52
52 1 52 53
53 1 53 54
54 1 54 55
55 1 55 56
56 1 56 57
57 1 57 58
58 1 58 59
59 1 59 60
60 1 60 51 

Angles

1 1 1 2 3 
2 1 2 3 4 
3 1 3 4 5
4 1 4 5 6
5 1 5 6 7
6 1 6 7 8
7 1 7 8 9
8 1 8 9 10
9 1 9 10 1
10 1 10 1 2
11 1 11 12 13
12 1 12 13 14
13 1 13 14 15
14 1 14 15 16
15 1 15 16 17
16 1 16 17 18
17 1 17 18 19
18 1 18 19 20
19 1 19 20 11
20 1 20 11 12
21 1 21 22 23
22 1 22 23 24
23 1 23 24 25
24 1 24 25 26
25 1 25 26 27
26 1 26 27 28
27 1 27 28 29
28 1 28 29 30
29 1 29 30 21
30 1 30 21 22
31 1 31 32 33 
32 1 32 33 34
33 1 33 34 35
34 1 34 35 36
35 1 35 36 37
36 1 36 37 38
37 1 37 38 39
38 1 38 39 40
39 1 39 40 31
40 1 40 31 32 
41 1 41 42 43
42 1 42 43 44
43 1 43 44 45
44 1 44 45 46
45 1 45 46 47 
46 1 46 47 48 
47 1 47 48 49 
48 1 48 49 50 
49 1 49 50 41 
50 1 50 41 42 
51 1 51 52 53
52 1 52 53 54
53 1 53 54 55
54 1 54 55 56
55 1 55 56 57
56 1 56 57 58
57 1 57 58 59
58 1 58 59 60
59 1 59 60 51
60 1 60 51 52