# LAMMPS data file 

40 atoms
40 bonds
40 angles

1 atom types
1 bond types
1 angle types

7.22872 12.7713 xlo xhi 
7.22872 12.7713 ylo yhi 
7.22872 12.7713 zlo zhi

Masses

1 1

Atoms

1 1 1 9.60711 11.4546 7.75959
2 1 1 10.1614 12.0089 8.31384
3 1 1 10.7156 12.5631 8.8681
4 1 1 11.2699 7.57484 9.42236
5 1 1 11.8241 8.12909 9.97661
6 1 1 12.3784 8.68335 10.5309
7 1 1 7.39008 9.2376 11.0851
8 1 1 7.94434 9.79186 11.6394
9 1 1 8.4986 10.3461 12.1936
10 1 1 9.05285 10.9004 12.7479
11 1 1 12.5631 7.94434 7.75959
12 1 1 12.0089 7.39008 8.31384
13 1 1 11.4546 12.3784 8.8681
14 1 1 10.9004 11.8241 9.42236
15 1 1 10.3461 11.2699 9.97661
16 1 1 9.79186 10.7156 10.5309
17 1 1 9.2376 10.1614 11.0851
18 1 1 8.68335 9.60711 11.6394
19 1 1 8.12909 9.05285 12.1936
20 1 1 7.57484 8.4986 12.7479
21 1 1 8.68335 12.5631 7.75959
22 1 1 9.23761 12.0089 8.31384
23 1 1 9.79186 11.4546 8.8681
24 1 1 10.3461 10.9004 9.42236
25 1 1 10.9004 10.3461 9.97661
26 1 1 11.4546 9.79186 10.5309
27 1 1 12.0089 9.2376 11.0851
28 1 1 12.5631 8.68335 11.6394
29 1 1 7.57483 8.12909 12.1936 
30 1 1 8.12909 7.57483 12.7479
31 1 1 7.39008 7.39008 8.31384
32 1 1 12.3784 7.94434 8.8681
33 1 1 11.8241 8.4986 9.42236
34 1 1 11.2699 9.05285 9.97661
35 1 1 10.7156 9.60711 10.5309
36 1 1 10.1614 10.1614 11.0851
37 1 1 9.60711 10.7156 11.6394
38 1 1 9.05285 11.2699 12.1936
39 1 1 8.4986 11.8241 12.7479
40 1 1 7.94434 12.3784 7.75959

Bonds

1 1 1 2 
2 1 2 3
3 1 3 4 
4 1 4 5
5 1 5 6
6 1 6 7
7 1 7 8
8 1 8 9
9 1 9 10
10 1 10 1
11 1 11 12 
12 1 12 13
13 1 13 14 
14 1 14 15
15 1 15 16
16 1 16 17
17 1 17 18
18 1 18 19
19 1 19 20
20 1 20 11
21 1 21 22
22 1 22 23
23 1 23 24
24 1 24 25
25 1 25 26
26 1 26 27
27 1 27 28
28 1 28 29
29 1 29 30
30 1 30 21
31 1 31 32
32 1 32 33
33 1 33 34
34 1 34 35
35 1 35 36
36 1 36 37
37 1 37 38
38 1 38 39
39 1 39 40
40 1 40 31

Angles

1 1 1 2 3 
2 1 2 3 4 
3 1 3 4 5
4 1 4 5 6
5 1 5 6 7
6 1 6 7 8
7 1 7 8 9
8 1 8 9 10
9 1 9 10 1
10 1 10 1 2
11 1 11 12 13
12 1 12 13 14
13 1 13 14 15
14 1 14 15 16
15 1 15 16 17
16 1 16 17 18
17 1 17 18 19
18 1 18 19 20
19 1 19 20 11
20 1 20 11 12
21 1 21 22 23
22 1 22 23 24
23 1 23 24 25
24 1 24 25 26
25 1 25 26 27
26 1 26 27 28
27 1 27 28 29
28 1 28 29 30
29 1 29 30 21
30 1 30 21 22
31 1 31 32 33 
32 1 32 33 34
33 1 33 34 35
34 1 34 35 36
35 1 35 36 37
36 1 36 37 38
37 1 37 38 39
38 1 38 39 40
39 1 39 40 31
40 1 40 31 32 